version 2
run TestAppTimeout-0-20140929-18:14:57-2269
attr configname TestAppTimeout
attr datetime 20140929-18:14:57
attr experiment TestAppTimeout
attr inifile test2stateApp.ini
attr iterationvars ""
attr iterationvars2 $repetition=0
attr measurement ""
attr network cloudMGn.simulations.Test2stateApp
attr processid 2269
attr repetition 0
attr replication #0
attr resultdir results
attr runnumber 0
attr seedset 0

vector 0  Test2stateApp.sink  responseTime_0  ETV
vector 1  Test2stateApp.sink  delayTime_0  ETV
vector 2  Test2stateApp.sink  queuingTime_0  ETV
vector 3  Test2stateApp.sink  serviceTime_0  ETV
0	32	2.695681165444	2.695681165444
0	233	23.214410804227	1.64802070055
0	247	27.816664024406	1.05947741741
0	252	29.809936598689	0.175154007279
0	265	41.707473124116	0.955068422525
0	288	59.275305145982	1.94833904475
0	365	69.551104915749	1.96164770166
0	383	72.849443807696	1.496616027043
0	558	98.894955035392	0.48989439386
0	646	118.060680742458	1.925127518031
0	724	145.59275361901	2.204893263567
0	889	175.383308216793	0.335838481896
0	912	180.661690299765	1.925084106089
0	922	182.033044640905	0.61860984609
0	977	191.124256156544	0.732145472209
0	985	193.873356882125	0.435834081875
0	1000	198.625605796648	0.891566622332
0	1008	199.300918228678	1.661721900367
0	1019	203.295269665866	0.754325796222
0	1037	208.741598403439	1.465671147921
0	1131	228.256480479201	1.793238230454
0	1195	237.702620699572	0.413429168363
0	1259	249.637147516629	0.56227819805
0	1280	256.158068632876	1.530212085861
0	1327	260.237406304788	1.843562963805
0	1332	260.771903111344	0.117549469239
0	1564	299.723756863158	1.805194031248
0	1583	301.455099867962	2.076134369716
0	1649	308.063340933321	2.692868158034
0	1701	314.951827496326	0.102959617795
0	1894	354.448427125619	2.137750779995
0	1899	355.644340106873	0.171980779271
0	1920	376.08183641004	1.799840659919
0	1924	378.984958619064	0.060570384437
0	2058	396.578800939632	1.455219565455
0	2157	408.284759828559	2.753256151796
0	2198	411.745071275577	0.474447103999
0	2251	416.621092522162	1.060990145213
0	2255	428.834584272322	0.028202251992
0	2402	444.188719215109	0.953983955486
0	2428	446.964606464519	2.021600369766
0	2449	448.878998663922	2.924240376333
0	2464	451.311160253338	0.940756755953
0	2475	452.29635294147	1.824387150107
0	2489	460.175695672118	0.87502451869
0	2512	462.304944768559	2.98074091267
0	2552	468.308414780454	1.74743191043
0	2573	474.908484699214	1.703712460439
0	2618	493.393519547109	2.382926557221
0	2784	522.344262672645	1.789138182986
0	2888	533.288824569006	0.403280542801
0	2934	542.888904352285	2.227066823478
0	2977	552.728679979746	1.137137689437
0	2992	563.366255797866	1.127216527217
0	3126	579.929454883502	2.663584231305
0	3188	591.907934978305	2.285603313882
0	3199	593.887500693949	0.786171725024
0	3218	610.235603151996	1.50693239478
0	3253	616.886016506918	2.993360696476
0	3273	618.718330631882	2.068694870769
0	3319	625.030644360891	1.827459211658
0	3337	630.050693202277	1.450907059766
0	3421	638.350300840339	0.425835945114
0	3427	638.943103051194	0.29076826373
0	3444	641.73453949001	1.311084041319
0	3472	647.050553768918	2.407655957273
0	3477	649.214153458246	0.102610255074
0	3548	659.843332157833	1.16634334954
0	3559	664.706481336523	0.750244484932
0	3567	667.236170232957	0.456880875763
0	3574	678.429421165213	0.306961844557
0	3620	684.318021480115	1.042389982527
0	3647	696.710435362348	2.310230578634
0	3668	704.386913168316	1.782220494969
0	3675	709.004435656835	0.314645506801
0	3692	710.520890336007	1.303036967829
0	3715	723.71465187176	1.900387853166
0	3791	763.019102981491	0.305498305093
0	3878	774.79076456756	1.060987929921
0	3887	775.520518349228	2.677369587314
0	3992	790.18018037266	1.590008634407
0	4000	797.276140275467	0.45237303058
0	4005	801.134532410202	0.101360356655
0	4043	806.749339903218	2.743440777665
0	4063	811.617663341393	1.63457138443
0	4068	813.160324972748	0.155737656547
0	4085	820.770993869635	1.364735534373
0	4089	829.520425314267	0.050303297976
0	4100	848.806912903307	0.786987927498
0	4198	868.083320873541	1.543837627976
0	4217	869.80070242404	2.31974430238
0	4236	872.555102143968	1.114138257934
0	4254	873.797038911985	2.635425290393
0	4258	874.059595765592	1.502935839054
0	4273	875.427387797523	2.777250518881
0	4379	899.813001316385	2.723892081972
0	4402	904.738141968514	0.4934779864
0	4503	916.539596370898	1.774563063196
0	4734	951.139472900929	1.297899282219
0	4745	953.135695071481	0.754795839338
0	4756	954.299099905629	0.740577806394
0	4785	957.11761866789	2.52893632624
0	4807	970.839097260717	1.805036959573
0	4867	980.928260337297	0.506176202104
0	4885	982.202477423644	0.312855028835
0	4907	984.209818594712	2.021291385326
0	5147	1008.290478301946	2.879274906139
0	5211	1022.50779253839	1.901790058181
0	5241	1046.230763853284	2.426498741207
0	5293	1050.973551951957	0.507309561595
0	5312	1053.375321134073	1.38105423464
0	5440	1065.07823935497	1.531088676888
0	5466	1070.184763339999	2.200103019499
0	5470	1076.875543060355	0.000166055685
0	5485	1082.954188350603	1.121289881448
0	5508	1093.899517160701	1.762512487142
0	5619	1105.660608995246	2.900394994445
0	5642	1120.007646588009	1.981509239242
0	5675	1126.623624154023	1.568327919771
0	5785	1147.469525640759	1.129288054563
0	5832	1151.819560695405	2.814948219595
0	5850	1153.856374725703	1.070635197733
0	5921	1160.082133660016	1.02619480698
0	5931	1162.789159382674	0.619073980814
0	6055	1180.757887118747	1.947434390841
0	6082	1183.034671441273	0.581599499696
0	6144	1191.33645624023	1.866110757241
0	6199	1196.879478124866	0.720841772391
0	6208	1197.711753069698	0.540822898733
0	6216	1198.353330892704	0.400021869817
0	6244	1203.593790851873	0.095501922217
0	6313	1225.14074558897	0.291503035101
0	6324	1232.489652310128	0.735594277925
0	6380	1248.096581066422	0.187561501306
0	6391	1253.004062506476	0.703967547769
0	6405	1269.657041107354	1.014464144533
0	6427	1272.065513475723	0.317698909168
0	6437	1272.493362548857	0.134281639672
0	6640	1301.765248843113	1.257633606995
0	6779	1330.344471243368	2.797835565804
0	6790	1338.743666007316	0.739247466636
0	6812	1341.889905740171	1.821837865857
0	6861	1360.596078766398	2.915520441986
0	6925	1388.772290128557	1.997527459906
0	6989	1401.84767831436	2.068303613537
0	7026	1413.196470666105	1.314522130839
0	7294	1452.495409653787	0.058182252168
0	7307	1456.818938488113	0.941993694189
0	7326	1462.5632819186	1.585401684903
0	7357	1465.853859832544	2.577023009969
0	7360	1466.01464955833	2.00168754919
0	7383	1474.431869619679	0.733074270808
0	7386	1474.570013547566	1.923884639715
0	7470	1490.236352248871	1.262979894142
0	7539	1524.807776951967	1.589884737815
0	7556	1536.405278135438	1.335448018216
0	7575	1544.036951390466	1.529972501546
0	7597	1546.21077501601	1.677881715378
0	7647	1550.152914789737	0.275769021622
0	7664	1551.633422023102	2.741440674705
0	7740	1558.623148679806	2.222797366671
0	7796	1567.126910234145	2.570872232762
0	7861	1573.024593859047	2.010434647125
0	7946	1580.754029606837	1.528870054244
0	7953	1589.380049632379	0.304602251824
0	7965	1596.455381178322	0.887705619744
0	8073	1606.243405764314	1.750271313103
0	8158	1617.993834097857	1.804511451224
0	8202	1621.764845830101	0.519638864433
0	8216	1623.000870026971	2.754940750906
0	8237	1630.608197391694	1.301623421133
0	8369	1650.919166607915	0.58938565769
0	8375	1652.048663681996	0.217257330343
0	8379	1654.201144845848	0.029206228021
0	8409	1661.030500912119	0.836839824748
0	8591	1681.36852357109	2.352574654343
0	8606	1682.674736624367	1.826531248458
0	8615	1685.730430972579	0.573888137694
0	8638	1703.115312456438	1.934725473495
0	8683	1709.989397934577	0.62844532329
0	8691	1713.393730781803	0.465856756512
0	8770	1726.06515368062	1.26141553831
0	8775	1726.44732639646	2.333354413796
0	8784	1727.819795956409	0.522596149749
0	8792	1743.377107718661	0.415760464269
0	8821	1746.592087493931	2.594814328283
0	8827	1756.003865233035	0.290392416924
0	8867	1762.997508897408	0.307436758352
0	8973	1783.179370083112	0.294358567886
0	8993	1787.098000689027	1.66697673947
0	9016	1799.073292789337	1.922920635788
0	9046	1805.610600574333	2.603909946049
0	9072	1811.10258584872	0.096921551188
0	9154	1824.557870069918	0.057125699177
0	9181	1826.863618888748	1.487899276917
0	9192	1834.128779530016	0.79527930422
0	9217	1851.42485201799	2.100076908344
0	9293	1859.336558025856	2.478048678491
0	9300	1866.916049585607	0.307655679009
0	9333	1872.579714386207	2.916032673182
0	9388	1889.648010457129	0.527440369048
0	9517	1909.982413794985	0.290598201015
0	9523	1918.440654947213	0.297664579451
0	9705	1941.424122915401	0.713361445179
0	9713	1942.024238376781	1.482836182771
0	9734	1958.43987725367	1.760306420037
0	9752	1960.366583620595	1.491627859024
0	9854	1979.208896351094	0.686348773284
0	9881	1993.34176943317	0.289623837082
0	9886	2003.406395282898	0.172778750451
0	9892	2006.532307851091	0.271522410444
0	9904	2009.050786614832	0.812173172209
0	10002	2017.862300085979	0.13403243191
0	10099	2025.904027864509	2.638408846267
0	10117	2029.490346481503	1.406763981816
0	10122	2046.521597797201	0.140204705206
0	10137	2070.696278234145	1.113485162402
0	10254	2082.940219737412	1.37708378246
0	10279	2106.227441043605	1.925185829354
0	10327	2112.503775323658	0.219154971463
0	10370	2117.623444533711	2.256112118812
0	10509	2133.463890634813	2.130457434128
0	10529	2135.76742417667	1.674980367794
0	10621	2147.737706193008	1.777972253809
0	10668	2152.692944311366	1.818016882483
0	10687	2161.215534031521	1.520169641696
0	10749	2177.736615701034	1.390174840855
0	10767	2186.225166976873	1.442634672907
0	10885	2235.465679165054	0.387115509552
0	10897	2237.66681873228	0.829418149629
0	10908	2261.763338590144	0.777336767647
0	11018	2279.385114554066	1.330003188002
0	11034	2280.844671973337	1.460477862162
0	11050	2286.298866950029	0.761852343136
0	11142	2295.090763722528	2.993933710212
0	11150	2303.19785082197	0.42750883695
0	11168	2305.76700178589	1.406387074916
0	11183	2307.919677684703	1.176483868866
0	11275	2320.548843837841	2.253361264961
0	11320	2325.079226723384	1.9856003652
0	11383	2337.753422755156	0.675127481586
0	11410	2353.751088616574	2.385666603924
0	11435	2358.590676271543	2.199676016031
0	11451	2367.775658278921	1.286735507313
0	11455	2380.648265708614	0.074784287183
0	11463	2388.003701692648	0.483427736475
0	11471	2393.957240017914	0.424179338196
0	11630	2446.679616422544	0.678512306494
0	11637	2447.205635431467	1.908257092559
0	11672	2453.559872545025	0.512699351688
0	11747	2464.393025025973	0.058467878855
0	11798	2485.994864231208	0.524144648686
0	11810	2487.975480105689	0.898059008822
0	11821	2492.290922479472	0.728236312077
0	11851	2505.518112760865	2.601876056487
0	11908	2510.583316371669	1.040839285631
0	11946	2514.304848118743	0.138560312694
0	12015	2522.710966023854	1.023658942092
0	12045	2526.026027714431	0.146320140714
0	12115	2532.573612742594	2.972013861889
0	12130	2537.74437106747	1.19938581743
0	12245	2552.02303024202	0.553847618717
0	12286	2564.584390119046	2.951566582244
0	12356	2570.751715350904	2.00717817916
0	12382	2577.747416743474	2.265635453276
0	12568	2598.371616469657	2.879690994811
0	12581	2602.085906690877	0.955179048166
0	12589	2612.181714038018	0.481452322074
0	12642	2620.091542545222	2.653685361741
0	12669	2623.807539343611	0.134922890709
0	12688	2625.557318609178	1.924278888806
0	12716	2628.453879651628	2.449778066539
0	12733	2631.129196729164	1.344263905124
0	12754	2644.047702566142	1.031610336316
0	12766	2645.143445584375	2.596130292598
0	12798	2648.045630610114	0.205179218235
0	12893	2656.359767430401	0.838872081139
0	12909	2657.786291505246	1.650583321545
0	12936	2662.762832085071	2.323550363801
0	12996	2673.431306666833	1.477324129131
0	13016	2688.292778834131	1.472754599022
0	13029	2689.412916061861	2.579357453859
0	13334	2735.626474448869	0.08859543349
0	13471	2750.342385175389	1.520349306214
0	13710	2779.796370532145	1.193845183945
0	13739	2785.779707701307	2.354683544308
0	13789	2806.764708004492	2.916146905436
0	13807	2815.549816771205	1.430993252831
0	13834	2819.955347723066	2.343506369961
0	13841	2830.776065874549	0.386635938124
0	13893	2848.14209162254	1.015323398452
0	13898	2856.115316523068	0.131781702379
0	13905	2873.608813882006	0.370228414521
1	32	2.695681165444	0
1	233	23.214410804227	0
1	247	27.816664024406	0
1	252	29.809936598689	0
1	265	41.707473124116	0
1	288	59.275305145982	0
1	365	69.551104915749	0
1	383	72.849443807696	0
1	558	98.894955035392	0
1	646	118.060680742458	0
1	724	145.59275361901	0
1	889	175.383308216793	0
1	912	180.661690299765	0
1	922	182.033044640905	0
1	977	191.124256156544	0
1	985	193.873356882125	0
1	1000	198.625605796648	0
1	1008	199.300918228678	0
1	1019	203.295269665866	0
1	1037	208.741598403439	0
1	1131	228.256480479201	0
1	1195	237.702620699572	0
1	1259	249.637147516629	0
1	1280	256.158068632876	0
1	1327	260.237406304788	0
1	1332	260.771903111344	0
1	1564	299.723756863158	0
1	1583	301.455099867962	0
1	1649	308.063340933321	0
1	1701	314.951827496326	0
1	1894	354.448427125619	0
1	1899	355.644340106873	0
1	1920	376.08183641004	0
1	1924	378.984958619064	0
1	2058	396.578800939632	0
1	2157	408.284759828559	0
1	2198	411.745071275577	0
1	2251	416.621092522162	0
1	2255	428.834584272322	0
1	2402	444.188719215109	0
1	2428	446.964606464519	0
1	2449	448.878998663922	0
1	2464	451.311160253338	0
1	2475	452.29635294147	0
1	2489	460.175695672118	0
1	2512	462.304944768559	0
1	2552	468.308414780454	0
1	2573	474.908484699214	0
1	2618	493.393519547109	0
1	2784	522.344262672645	0
1	2888	533.288824569006	0
1	2934	542.888904352285	0
1	2977	552.728679979746	0
1	2992	563.366255797866	0
1	3126	579.929454883502	0
1	3188	591.907934978305	0
1	3199	593.887500693949	0
1	3218	610.235603151996	0
1	3253	616.886016506918	0
1	3273	618.718330631882	0
1	3319	625.030644360891	0
1	3337	630.050693202277	0
1	3421	638.350300840339	0
1	3427	638.943103051194	0
1	3444	641.73453949001	0
1	3472	647.050553768918	0
1	3477	649.214153458246	0
1	3548	659.843332157833	0
1	3559	664.706481336523	0
1	3567	667.236170232957	0
1	3574	678.429421165213	0
1	3620	684.318021480115	0
1	3647	696.710435362348	0
1	3668	704.386913168316	0
1	3675	709.004435656835	0
1	3692	710.520890336007	0
1	3715	723.71465187176	0
1	3791	763.019102981491	0
1	3878	774.79076456756	0
1	3887	775.520518349228	0
1	3992	790.18018037266	0
1	4000	797.276140275467	0
1	4005	801.134532410202	0
1	4043	806.749339903218	0
1	4063	811.617663341393	0
1	4068	813.160324972748	0
1	4085	820.770993869635	0
1	4089	829.520425314267	0
1	4100	848.806912903307	0
1	4198	868.083320873541	0
1	4217	869.80070242404	0
1	4236	872.555102143968	0
1	4254	873.797038911985	0
1	4258	874.059595765592	0
1	4273	875.427387797523	0
1	4379	899.813001316385	0
1	4402	904.738141968514	0
1	4503	916.539596370898	0
1	4734	951.139472900929	0
1	4745	953.135695071481	0
1	4756	954.299099905629	0
1	4785	957.11761866789	0
1	4807	970.839097260717	0
1	4867	980.928260337297	0
1	4885	982.202477423644	0
1	4907	984.209818594712	0
1	5147	1008.290478301946	0
1	5211	1022.50779253839	0
1	5241	1046.230763853284	0
1	5293	1050.973551951957	0
1	5312	1053.375321134073	0
1	5440	1065.07823935497	0
1	5466	1070.184763339999	0
1	5470	1076.875543060355	0
1	5485	1082.954188350603	0
1	5508	1093.899517160701	0
1	5619	1105.660608995246	0
1	5642	1120.007646588009	0
1	5675	1126.623624154023	0
1	5785	1147.469525640759	0
1	5832	1151.819560695405	0
1	5850	1153.856374725703	0
1	5921	1160.082133660016	0
1	5931	1162.789159382674	0
1	6055	1180.757887118747	0
1	6082	1183.034671441273	0
1	6144	1191.33645624023	0
1	6199	1196.879478124866	0
1	6208	1197.711753069698	0
1	6216	1198.353330892704	0
1	6244	1203.593790851873	0
1	6313	1225.14074558897	0
1	6324	1232.489652310128	0
1	6380	1248.096581066422	0
1	6391	1253.004062506476	0
1	6405	1269.657041107354	0
1	6427	1272.065513475723	0
1	6437	1272.493362548857	0
1	6640	1301.765248843113	0
1	6779	1330.344471243368	0
1	6790	1338.743666007316	0
1	6812	1341.889905740171	0
1	6861	1360.596078766398	0
1	6925	1388.772290128557	0
1	6989	1401.84767831436	0
1	7026	1413.196470666105	0
1	7294	1452.495409653787	0
1	7307	1456.818938488113	0
1	7326	1462.5632819186	0
1	7357	1465.853859832544	0
1	7360	1466.01464955833	0
1	7383	1474.431869619679	0
1	7386	1474.570013547566	0
1	7470	1490.236352248871	0
1	7539	1524.807776951967	0
1	7556	1536.405278135438	0
1	7575	1544.036951390466	0
1	7597	1546.21077501601	0
1	7647	1550.152914789737	0
1	7664	1551.633422023102	0
1	7740	1558.623148679806	0
1	7796	1567.126910234145	0
1	7861	1573.024593859047	0
1	7946	1580.754029606837	0
1	7953	1589.380049632379	0
1	7965	1596.455381178322	0
1	8073	1606.243405764314	0
1	8158	1617.993834097857	0
1	8202	1621.764845830101	0
1	8216	1623.000870026971	0
1	8237	1630.608197391694	0
1	8369	1650.919166607915	0
1	8375	1652.048663681996	0
1	8379	1654.201144845848	0
1	8409	1661.030500912119	0
1	8591	1681.36852357109	0
1	8606	1682.674736624367	0
1	8615	1685.730430972579	0
1	8638	1703.115312456438	0
1	8683	1709.989397934577	0
1	8691	1713.393730781803	0
1	8770	1726.06515368062	0
1	8775	1726.44732639646	0
1	8784	1727.819795956409	0
1	8792	1743.377107718661	0
1	8821	1746.592087493931	0
1	8827	1756.003865233035	0
1	8867	1762.997508897408	0
1	8973	1783.179370083112	0
1	8993	1787.098000689027	0
1	9016	1799.073292789337	0
1	9046	1805.610600574333	0
1	9072	1811.10258584872	0
1	9154	1824.557870069918	0
1	9181	1826.863618888748	0
1	9192	1834.128779530016	0
1	9217	1851.42485201799	0
1	9293	1859.336558025856	0
1	9300	1866.916049585607	0
1	9333	1872.579714386207	0
1	9388	1889.648010457129	0
1	9517	1909.982413794985	0
1	9523	1918.440654947213	0
1	9705	1941.424122915401	0
1	9713	1942.024238376781	0
1	9734	1958.43987725367	0
1	9752	1960.366583620595	0
1	9854	1979.208896351094	0
1	9881	1993.34176943317	0
1	9886	2003.406395282898	0
1	9892	2006.532307851091	0
1	9904	2009.050786614832	0
1	10002	2017.862300085979	0
1	10099	2025.904027864509	0
1	10117	2029.490346481503	0
1	10122	2046.521597797201	0
1	10137	2070.696278234145	0
1	10254	2082.940219737412	0
1	10279	2106.227441043605	0
1	10327	2112.503775323658	0
1	10370	2117.623444533711	0
1	10509	2133.463890634813	0
1	10529	2135.76742417667	0
1	10621	2147.737706193008	0
1	10668	2152.692944311366	0
1	10687	2161.215534031521	0
1	10749	2177.736615701034	0
1	10767	2186.225166976873	0
1	10885	2235.465679165054	0
1	10897	2237.66681873228	0
1	10908	2261.763338590144	0
1	11018	2279.385114554066	0
1	11034	2280.844671973337	0
1	11050	2286.298866950029	0
1	11142	2295.090763722528	0
1	11150	2303.19785082197	0
1	11168	2305.76700178589	0
1	11183	2307.919677684703	0
1	11275	2320.548843837841	0
1	11320	2325.079226723384	0
1	11383	2337.753422755156	0
1	11410	2353.751088616574	0
1	11435	2358.590676271543	0
1	11451	2367.775658278921	0
1	11455	2380.648265708614	0
1	11463	2388.003701692648	0
1	11471	2393.957240017914	0
1	11630	2446.679616422544	0
1	11637	2447.205635431467	0
1	11672	2453.559872545025	0
1	11747	2464.393025025973	0
1	11798	2485.994864231208	0
1	11810	2487.975480105689	0
1	11821	2492.290922479472	0
1	11851	2505.518112760865	0
1	11908	2510.583316371669	0
1	11946	2514.304848118743	0
1	12015	2522.710966023854	0
1	12045	2526.026027714431	0
1	12115	2532.573612742594	0
1	12130	2537.74437106747	0
1	12245	2552.02303024202	0
1	12286	2564.584390119046	0
1	12356	2570.751715350904	0
1	12382	2577.747416743474	0
1	12568	2598.371616469657	0
1	12581	2602.085906690877	0
1	12589	2612.181714038018	0
1	12642	2620.091542545222	0
1	12669	2623.807539343611	0
1	12688	2625.557318609178	0
1	12716	2628.453879651628	0
1	12733	2631.129196729164	0
1	12754	2644.047702566142	0
1	12766	2645.143445584375	0
1	12798	2648.045630610114	0
1	12893	2656.359767430401	0
1	12909	2657.786291505246	0
1	12936	2662.762832085071	0
1	12996	2673.431306666833	0
1	13016	2688.292778834131	0
1	13029	2689.412916061861	0
1	13334	2735.626474448869	0
1	13471	2750.342385175389	0
1	13710	2779.796370532145	0
1	13739	2785.779707701307	0
1	13789	2806.764708004492	0
1	13807	2815.549816771205	0
1	13834	2819.955347723066	0
1	13841	2830.776065874549	0
1	13893	2848.14209162254	0
1	13898	2856.115316523068	0
1	13905	2873.608813882006	0
2	32	2.695681165444	0
2	233	23.214410804227	0.192636209387
2	247	27.816664024406	0
2	252	29.809936598689	0
2	265	41.707473124116	0
2	288	59.275305145982	0
2	365	69.551104915749	0
2	383	72.849443807696	0
2	558	98.894955035392	0.036201832866
2	646	118.060680742458	0
2	724	145.59275361901	0
2	889	175.383308216793	0
2	912	180.661690299765	0
2	922	182.033044640905	0
2	977	191.124256156544	0
2	985	193.873356882125	0
2	1000	198.625605796648	0.405157153995
2	1008	199.300918228678	0.486409468337
2	1019	203.295269665866	0
2	1037	208.741598403439	0
2	1131	228.256480479201	0
2	1195	237.702620699572	0.099745491038
2	1259	249.637147516629	0
2	1280	256.158068632876	0.2
2	1327	260.237406304788	0.664225291893
2	1332	260.771903111344	0
2	1564	299.723756863158	0.2
2	1583	301.455099867962	0.144791364912
2	1649	308.063340933321	1.548200627914
2	1701	314.951827496326	0.061965882503
2	1894	354.448427125619	0
2	1899	355.644340106873	0
2	1920	376.08183641004	0
2	1924	378.984958619064	0
2	2058	396.578800939632	0.722033221211
2	2157	408.284759828559	0.619512340149
2	2198	411.745071275577	0.214135656981
2	2251	416.621092522162	0.084968898628
2	2255	428.834584272322	0
2	2402	444.188719215109	0.0314307842
2	2428	446.964606464519	0.5
2	2449	448.878998663922	0.50984817693
2	2464	451.311160253338	0.4
2	2475	452.29635294147	0.439194461975
2	2489	460.175695672118	0.4
2	2512	462.304944768559	0.451491816229
2	2552	468.308414780454	0.726391695727
2	2573	474.908484699214	0
2	2618	493.393519547109	0.86989513746
2	2784	522.344262672645	0
2	2888	533.288824569006	0.032700600715
2	2934	542.888904352285	0.63489933363
2	2977	552.728679979746	0.274906261227
2	2992	563.366255797866	0
2	3126	579.929454883502	0
2	3188	591.907934978305	0
2	3199	593.887500693949	0
2	3218	610.235603151996	0
2	3253	616.886016506918	0.1
2	3273	618.718330631882	0.136380745805
2	3319	625.030644360891	0.808465013912
2	3337	630.050693202277	0
2	3421	638.350300840339	0.100194649631
2	3427	638.943103051194	0
2	3444	641.73453949001	0
2	3472	647.050553768918	0
2	3477	649.214153458246	0
2	3548	659.843332157833	0.004953073094
2	3559	664.706481336523	0
2	3567	667.236170232957	0
2	3574	678.429421165213	0
2	3620	684.318021480115	0.137692242859
2	3647	696.710435362348	0
2	3668	704.386913168316	0
2	3675	709.004435656835	0
2	3692	710.520890336007	0
2	3715	723.71465187176	0
2	3791	763.019102981491	0.190649566439
2	3878	774.79076456756	0.513372124275
2	3887	775.520518349228	0.547615805646
2	3992	790.18018037266	0
2	4000	797.276140275467	0
2	4005	801.134532410202	0
2	4043	806.749339903218	1.341623078436
2	4063	811.617663341393	0
2	4068	813.160324972748	0
2	4085	820.770993869635	0
2	4089	829.520425314267	0
2	4100	848.806912903307	0
2	4198	868.083320873541	0.3
2	4217	869.80070242404	0.302362751881
2	4236	872.555102143968	0.520649735558
2	4254	873.797038911985	1.393488522376
2	4258	874.059595765592	0.940378985447
2	4273	875.427387797523	0.90945848695
2	4379	899.813001316385	0
2	4402	904.738141968514	0.338429269015
2	4503	916.539596370898	0.841659648289
2	4734	951.139472900929	0.581640663677
2	4745	953.135695071481	0
2	4756	954.299099905629	0
2	4785	957.11761866789	0
2	4807	970.839097260717	0
2	4867	980.928260337297	0.23871333212
2	4885	982.202477423644	0.138637942488
2	4907	984.209818594712	0.013950214258
2	5147	1008.290478301946	0.077093908324
2	5211	1022.50779253839	0
2	5241	1046.230763853284	0.6
2	5293	1050.973551951957	0.064521462922
2	5312	1053.375321134073	0.6
2	5440	1065.07823935497	0.353369592326
2	5466	1070.184763339999	0
2	5470	1076.875543060355	0
2	5485	1082.954188350603	0
2	5508	1093.899517160701	0.1
2	5619	1105.660608995246	1.073261156322
2	5642	1120.007646588009	0
2	5675	1126.623624154023	0.786407531642
2	5785	1147.469525640759	0
2	5832	1151.819560695405	0.900382402819
2	5850	1153.856374725703	0.570011274035
2	5921	1160.082133660016	0.300435872667
2	5931	1162.789159382674	0
2	6055	1180.757887118747	0.974837050383
2	6082	1183.034671441273	0.00481517717
2	6144	1191.33645624023	0
2	6199	1196.879478124866	0.033108796771
2	6208	1197.711753069698	0
2	6216	1198.353330892704	0
2	6244	1203.593790851873	0.002723047536
2	6313	1225.14074558897	0
2	6324	1232.489652310128	0
2	6380	1248.096581066422	0.047498270373
2	6391	1253.004062506476	0
2	6405	1269.657041107354	0
2	6427	1272.065513475723	0.122360314809
2	6437	1272.493362548857	0.106432566538
2	6640	1301.765248843113	0.656307021738
2	6779	1330.344471243368	0
2	6790	1338.743666007316	0
2	6812	1341.889905740171	0
2	6861	1360.596078766398	0.882114435825
2	6925	1388.772290128557	0
2	6989	1401.84767831436	0
2	7026	1413.196470666105	0.666233481057
2	7294	1452.495409653787	0.046013288205
2	7307	1456.818938488113	0
2	7326	1462.5632819186	0
2	7357	1465.853859832544	0.9
2	7360	1466.01464955833	0.940897823404
2	7383	1474.431869619679	0.34733355898
2	7386	1474.570013547566	0.385740711828
2	7470	1490.236352248871	0
2	7539	1524.807776951967	0
2	7556	1536.405278135438	0
2	7575	1544.036951390466	0
2	7597	1546.21077501601	0.6
2	7647	1550.152914789737	0.233629247895
2	7664	1551.633422023102	1.56093344134
2	7740	1558.623148679806	1.133070709967
2	7796	1567.126910234145	1.70533410172
2	7861	1573.024593859047	0.312751022223
2	7946	1580.754029606837	0.099434306454
2	7953	1589.380049632379	0
2	7965	1596.455381178322	0
2	8073	1606.243405764314	0
2	8158	1617.993834097857	0.1
2	8202	1621.764845830101	0.248627132189
2	8216	1623.000870026971	0.618916554036
2	8237	1630.608197391694	0.607360505268
2	8369	1650.919166607915	0
2	8375	1652.048663681996	0
2	8379	1654.201144845848	0
2	8409	1661.030500912119	0.407080760605
2	8591	1681.36852357109	0.341879024618
2	8606	1682.674736624367	0.220318195181
2	8615	1685.730430972579	0
2	8638	1703.115312456438	0
2	8683	1709.989397934577	0.105859842169
2	8691	1713.393730781803	0
2	8770	1726.06515368062	0.784379487912
2	8775	1726.44732639646	1.151181697956
2	8784	1727.819795956409	0
2	8792	1743.377107718661	0
2	8821	1746.592087493931	0
2	8827	1756.003865233035	0
2	8867	1762.997508897408	0.047585775012
2	8973	1783.179370083112	0
2	8993	1787.098000689027	0
2	9016	1799.073292789337	0
2	9046	1805.610600574333	0
2	9072	1811.10258584872	0.014595249898
2	9154	1824.557870069918	0.027682389983
2	9181	1826.863618888748	0.382150458087
2	9192	1834.128779530016	0
2	9217	1851.42485201799	0
2	9293	1859.336558025856	0.0299929866
2	9300	1866.916049585607	0
2	9333	1872.579714386207	0
2	9388	1889.648010457129	0.012824486931
2	9517	1909.982413794985	0.024101053053
2	9523	1918.440654947213	0
2	9705	1941.424122915401	0.330640723788
2	9713	1942.024238376781	0.382720721391
2	9734	1958.43987725367	0
2	9752	1960.366583620595	0
2	9854	1979.208896351094	0.375336263358
2	9881	1993.34176943317	0
2	9886	2003.406395282898	0
2	9892	2006.532307851091	0
2	9904	2009.050786614832	0
2	10002	2017.862300085979	0.035020476741
2	10099	2025.904027864509	1.796681067737
2	10117	2029.490346481503	0
2	10122	2046.521597797201	0
2	10137	2070.696278234145	0
2	10254	2082.940219737412	0
2	10279	2106.227441043605	0.8
2	10327	2112.503775323658	0
2	10370	2117.623444533711	0.818474035363
2	10509	2133.463890634813	0.06491577
2	10529	2135.76742417667	0
2	10621	2147.737706193008	0
2	10668	2152.692944311366	0.464300487013
2	10687	2161.215534031521	0
2	10749	2177.736615701034	0.498054257132
2	10767	2186.225166976873	0
2	10885	2235.465679165054	0
2	10897	2237.66681873228	0
2	10908	2261.763338590144	0
2	11018	2279.385114554066	0
2	11034	2280.844671973337	0.000920442891
2	11050	2286.298866950029	0.39935815435
2	11142	2295.090763722528	0.002036937713
2	11150	2303.19785082197	0
2	11168	2305.76700178589	0
2	11183	2307.919677684703	0
2	11275	2320.548843837841	1.199397420336
2	11320	2325.079226723384	0.68460579908
2	11383	2337.753422755156	0
2	11410	2353.751088616574	0
2	11435	2358.590676271543	0
2	11451	2367.775658278921	0
2	11455	2380.648265708614	0
2	11463	2388.003701692648	0
2	11471	2393.957240017914	0
2	11630	2446.679616422544	0.362323916759
2	11637	2447.205635431467	0.482238083636
2	11672	2453.559872545025	0.287123924197
2	11747	2464.393025025973	0
2	11798	2485.994864231208	0.041954526984
2	11810	2487.975480105689	0
2	11821	2492.290922479472	0
2	11851	2505.518112760865	0
2	11908	2510.583316371669	0.084316140394
2	11946	2514.304848118743	0.061076179417
2	12015	2522.710966023854	0.047408790607
2	12045	2526.026027714431	0.065678282184
2	12115	2532.573612742594	0.024428833726
2	12130	2537.74437106747	0
2	12245	2552.02303024202	0
2	12286	2564.584390119046	1.750421987869
2	12356	2570.751715350904	0.539852947302
2	12382	2577.747416743474	0
2	12568	2598.371616469657	0.495072486618
2	12581	2602.085906690877	0
2	12589	2612.181714038018	0
2	12642	2620.091542545222	1.585188017052
2	12669	2623.807539343611	0.06042326747
2	12688	2625.557318609178	0.074499623239
2	12716	2628.453879651628	0
2	12733	2631.129196729164	0
2	12754	2644.047702566142	0.531223061951
2	12766	2645.143445584375	0.500387274365
2	12798	2648.045630610114	0.1795351623
2	12893	2656.359767430401	0.524735260852
2	12909	2657.786291505246	0.6240592467
2	12936	2662.762832085071	0
2	12996	2673.431306666833	0
2	13016	2688.292778834131	0.7
2	13029	2689.412916061861	0.759220226129
2	13334	2735.626474448869	0
2	13471	2750.342385175389	0.071190233428
2	13710	2779.796370532145	0
2	13739	2785.779707701307	0.8
2	13789	2806.764708004492	0
2	13807	2815.549816771205	0
2	13834	2819.955347723066	0
2	13841	2830.776065874549	0
2	13893	2848.14209162254	0
2	13898	2856.115316523068	0
2	13905	2873.608813882006	0
3	32	2.695681165444	2.695681165444
3	233	23.214410804227	1.455384491163
3	247	27.816664024406	1.05947741741
3	252	29.809936598689	0.175154007279
3	265	41.707473124116	0.955068422525
3	288	59.275305145982	1.94833904475
3	365	69.551104915749	1.96164770166
3	383	72.849443807696	1.496616027043
3	558	98.894955035392	0.453692560994
3	646	118.060680742458	1.925127518031
3	724	145.59275361901	2.204893263567
3	889	175.383308216793	0.335838481896
3	912	180.661690299765	1.925084106089
3	922	182.033044640905	0.61860984609